<?xml version="1.0" encoding="UTF-8"?>

<!-- generated on Tue  5 Sep 17:25:29 2017 by SUMO gui Version 0.30.0
<?xml version="1.0" encoding="UTF-8"?>

<configuration xmlns:xsi="http://www.w3.org/2001/XMLSchema-instance" xsi:noNamespaceSchemaLocation="http://sumo.dlr.de/xsd/sumoConfiguration.xsd">

    <input>
        <net-file value="flinders.net.xml"/>
        <route-files value="flinders.rou.xml"/>
        <additional-files value="flinders.poly.xml"/>
    </input>

    <output>
        <summary-output value="OUTPUT.TXT"/>
    </output>

</configuration>
-->

<summary xmlns:xsi="http://www.w3.org/2001/XMLSchema-instance" xsi:noNamespaceSchemaLocation="http://sumo.dlr.de/xsd/summary_file.xsd">
    <step time="0.00" loaded="1" inserted="0" running="0" waiting="0" ended="0" meanWaitingTime="-1.00" meanTravelTime="-1.00" duration="1504596368419"/>
    <step time="1.00" loaded="1" inserted="0" running="0" waiting="0" ended="0" meanWaitingTime="-1.00" meanTravelTime="-1.00" duration="1504596368518"/>
    <step time="2.00" loaded="112" inserted="1" running="1" waiting="0" ended="0" meanWaitingTime="0.00" meanTravelTime="-1.00" duration="1504596368616"/>
    <step time="3.00" loaded="112" inserted="1" running="1" waiting="0" ended="0" meanWaitingTime="0.00" meanTravelTime="-1.00" duration="1504596368714"/>
    <step time="4.00" loaded="112" inserted="1" running="1" waiting="0" ended="0" meanWaitingTime="0.00" meanTravelTime="-1.00" duration="1504596368812"/>
    <step time="5.00" loaded="112" inserted="1" running="1" waiting="0" ended="0" meanWaitingTime="0.00" meanTravelTime="-1.00" duration="1504596368910"/>
    <step time="6.00" loaded="112" inserted="2" running="2" waiting="0" ended="0" meanWaitingTime="0.00" meanTravelTime="-1.00" duration="1504596369010"/>
    <step time="7.00" loaded="112" inserted="3" running="3" waiting="0" ended="0" meanWaitingTime="0.00" meanTravelTime="-1.00" duration="1504596369111"/>
    <step time="8.00" loaded="112" inserted="3" running="3" waiting="0" ended="0" meanWaitingTime="0.00" meanTravelTime="-1.00" duration="1504596369211"/>
    <step time="9.00" loaded="112" inserted="3" running="3" waiting="1" ended="0" meanWaitingTime="0.00" meanTravelTime="-1.00" duration="1504596369311"/>
    <step time="10.00" loaded="112" inserted="4" running="4" waiting="0" ended="0" meanWaitingTime="0.25" meanTravelTime="-1.00" duration="1504596369412"/>
    <step time="11.00" loaded="112" inserted="4" running="4" waiting="0" ended="0" meanWaitingTime="0.25" meanTravelTime="-1.00" duration="1504596369512"/>
    <step time="12.00" loaded="112" inserted="5" running="5" waiting="0" ended="0" meanWaitingTime="0.20" meanTravelTime="-1.00" duration="1504596369612"/>
    <step time="13.00" loaded="112" inserted="5" running="5" waiting="0" ended="0" meanWaitingTime="0.20" meanTravelTime="-1.00" duration="1504596369712"/>
    <step time="14.00" loaded="112" inserted="5" running="5" waiting="0" ended="0" meanWaitingTime="0.20" meanTravelTime="-1.00" duration="1504596369812"/>
    <step time="15.00" loaded="112" inserted="5" running="5" waiting="0" ended="0" meanWaitingTime="0.20" meanTravelTime="-1.00" duration="1504596369913"/>
    <step time="16.00" loaded="112" inserted="5" running="5" waiting="0" ended="0" meanWaitingTime="0.20" meanTravelTime="-1.00" duration="1504596370013"/>
    <step time="17.00" loaded="112" inserted="5" running="5" waiting="0" ended="0" meanWaitingTime="0.20" meanTravelTime="-1.00" duration="1504596370114"/>
    <step time="18.00" loaded="112" inserted="6" running="6" waiting="0" ended="0" meanWaitingTime="0.17" meanTravelTime="-1.00" duration="1504596370214"/>
    <step time="19.00" loaded="112" inserted="7" running="7" waiting="0" ended="0" meanWaitingTime="0.14" meanTravelTime="-1.00" duration="1504596370314"/>
    <step time="20.00" loaded="112" inserted="7" running="7" waiting="1" ended="0" meanWaitingTime="0.14" meanTravelTime="-1.00" duration="1504596370414"/>
    <step time="21.00" loaded="112" inserted="8" running="8" waiting="0" ended="0" meanWaitingTime="0.25" meanTravelTime="-1.00" duration="1504596370515"/>
    <step time="22.00" loaded="112" inserted="8" running="8" waiting="1" ended="0" meanWaitingTime="0.25" meanTravelTime="-1.00" duration="1504596370615"/>
    <step time="23.00" loaded="112" inserted="9" running="9" waiting="1" ended="0" meanWaitingTime="0.22" meanTravelTime="-1.00" duration="1504596370715"/>
    <step time="24.00" loaded="112" inserted="10" running="10" waiting="0" ended="0" meanWaitingTime="0.40" meanTravelTime="-1.00" duration="1504596370815"/>
    <step time="25.00" loaded="112" inserted="11" running="11" waiting="0" ended="0" meanWaitingTime="0.36" meanTravelTime="-1.00" duration="1504596370916"/>
    <step time="26.00" loaded="112" inserted="12" running="12" waiting="0" ended="0" meanWaitingTime="0.33" meanTravelTime="-1.00" duration="1504596371015"/>
    <step time="27.00" loaded="112" inserted="12" running="12" waiting="0" ended="0" meanWaitingTime="0.33" meanTravelTime="-1.00" duration="1504596371116"/>
    <step time="28.00" loaded="112" inserted="12" running="12" waiting="0" ended="0" meanWaitingTime="0.33" meanTravelTime="-1.00" duration="1504596371216"/>
    <step time="29.00" loaded="112" inserted="13" running="13" waiting="0" ended="0" meanWaitingTime="0.31" meanTravelTime="-1.00" duration="1504596371317"/>
    <step time="30.00" loaded="112" inserted="14" running="14" waiting="0" ended="0" meanWaitingTime="0.29" meanTravelTime="-1.00" duration="1504596371417"/>
    <step time="31.00" loaded="112" inserted="15" running="15" waiting="0" ended="0" meanWaitingTime="0.27" meanTravelTime="-1.00" duration="1504596371517"/>
    <step time="32.00" loaded="112" inserted="15" running="15" waiting="0" ended="0" meanWaitingTime="0.27" meanTravelTime="-1.00" duration="1504596371618"/>
    <step time="33.00" loaded="112" inserted="16" running="16" waiting="0" ended="0" meanWaitingTime="0.25" meanTravelTime="-1.00" duration="1504596371718"/>
    <step time="34.00" loaded="112" inserted="16" running="16" waiting="0" ended="0" meanWaitingTime="0.25" meanTravelTime="-1.00" duration="1504596371817"/>
    <step time="35.00" loaded="112" inserted="17" running="17" waiting="0" ended="0" meanWaitingTime="0.24" meanTravelTime="-1.00" duration="1504596371918"/>
    <step time="36.00" loaded="112" inserted="18" running="17" waiting="0" ended="1" meanWaitingTime="0.22" meanTravelTime="13.00" duration="1504596372017"/>
    <step time="37.00" loaded="112" inserted="18" running="17" waiting="0" ended="1" meanWaitingTime="0.22" meanTravelTime="13.00" duration="1504596372117"/>
    <step time="38.00" loaded="112" inserted="19" running="18" waiting="0" ended="1" meanWaitingTime="0.21" meanTravelTime="13.00" duration="1504596372219"/>
    <step time="39.00" loaded="112" inserted="19" running="18" waiting="1" ended="1" meanWaitingTime="0.21" meanTravelTime="13.00" duration="1504596372319"/>
    <step time="40.00" loaded="112" inserted="20" running="19" waiting="1" ended="1" meanWaitingTime="0.20" meanTravelTime="13.00" duration="1504596372421"/>
    <step time="41.00" loaded="112" inserted="22" running="21" waiting="0" ended="1" meanWaitingTime="0.27" meanTravelTime="13.00" duration="1504596372520"/>
    <step time="42.00" loaded="112" inserted="22" running="21" waiting="0" ended="1" meanWaitingTime="0.27" meanTravelTime="13.00" duration="1504596372620"/>
    <step time="43.00" loaded="112" inserted="22" running="21" waiting="0" ended="1" meanWaitingTime="0.27" meanTravelTime="13.00" duration="1504596372720"/>
    <step time="44.00" loaded="112" inserted="23" running="22" waiting="0" ended="1" meanWaitingTime="0.26" meanTravelTime="13.00" duration="1504596372821"/>
    <step time="45.00" loaded="112" inserted="23" running="22" waiting="0" ended="1" meanWaitingTime="0.26" meanTravelTime="13.00" duration="1504596372922"/>
    <step time="46.00" loaded="112" inserted="24" running="23" waiting="0" ended="1" meanWaitingTime="0.25" meanTravelTime="13.00" duration="1504596373022"/>
    <step time="47.00" loaded="112" inserted="25" running="24" waiting="0" ended="1" meanWaitingTime="0.24" meanTravelTime="13.00" duration="1504596373121"/>
    <step time="48.00" loaded="112" inserted="25" running="24" waiting="0" ended="1" meanWaitingTime="0.24" meanTravelTime="13.00" duration="1504596373222"/>
    <step time="49.00" loaded="112" inserted="25" running="24" waiting="0" ended="1" meanWaitingTime="0.24" meanTravelTime="13.00" duration="1504596373321"/>
    <step time="50.00" loaded="112" inserted="25" running="24" waiting="0" ended="1" meanWaitingTime="0.24" meanTravelTime="13.00" duration="1504596373422"/>
    <step time="51.00" loaded="112" inserted="26" running="25" waiting="0" ended="1" meanWaitingTime="0.23" meanTravelTime="13.00" duration="1504596373523"/>
    <step time="52.00" loaded="112" inserted="26" running="25" waiting="0" ended="1" meanWaitingTime="0.23" meanTravelTime="13.00" duration="1504596373623"/>
    <step time="53.00" loaded="112" inserted="26" running="25" waiting="0" ended="1" meanWaitingTime="0.23" meanTravelTime="13.00" duration="1504596373722"/>
    <step time="54.00" loaded="112" inserted="27" running="26" waiting="0" ended="1" meanWaitingTime="0.22" meanTravelTime="13.00" duration="1504596373824"/>
    <step time="55.00" loaded="112" inserted="27" running="26" waiting="0" ended="1" meanWaitingTime="0.22" meanTravelTime="13.00" duration="1504596373923"/>
    <step time="56.00" loaded="112" inserted="27" running="26" waiting="0" ended="1" meanWaitingTime="0.22" meanTravelTime="13.00" duration="1504596374024"/>
    <step time="57.00" loaded="112" inserted="27" running="26" waiting="0" ended="1" meanWaitingTime="0.22" meanTravelTime="13.00" duration="1504596374124"/>
    <step time="58.00" loaded="112" inserted="27" running="26" waiting="0" ended="1" meanWaitingTime="0.22" meanTravelTime="13.00" duration="1504596374225"/>
    <step time="59.00" loaded="112" inserted="27" running="26" waiting="0" ended="1" meanWaitingTime="0.22" meanTravelTime="13.00" duration="1504596374325"/>
    <step time="60.00" loaded="112" inserted="28" running="27" waiting="0" ended="1" meanWaitingTime="0.21" meanTravelTime="13.00" duration="1504596374425"/>
    <step time="61.00" loaded="112" inserted="28" running="27" waiting="1" ended="1" meanWaitingTime="0.21" meanTravelTime="13.00" duration="1504596374525"/>
    <step time="62.00" loaded="112" inserted="29" running="28" waiting="1" ended="1" meanWaitingTime="0.24" meanTravelTime="13.00" duration="1504596374625"/>
    <step time="63.00" loaded="112" inserted="30" running="29" waiting="1" ended="1" meanWaitingTime="0.23" meanTravelTime="13.00" duration="1504596374725"/>
    <step time="64.00" loaded="112" inserted="30" running="29" waiting="2" ended="1" meanWaitingTime="0.23" meanTravelTime="13.00" duration="1504596374826"/>
    <step time="65.00" loaded="112" inserted="31" running="30" waiting="1" ended="1" meanWaitingTime="0.32" meanTravelTime="13.00" duration="1504596374925"/>
    <step time="66.00" loaded="112" inserted="32" running="31" waiting="1" ended="1" meanWaitingTime="0.31" meanTravelTime="13.00" duration="1504596375027"/>
    <step time="67.00" loaded="112" inserted="32" running="31" waiting="2" ended="1" meanWaitingTime="0.31" meanTravelTime="13.00" duration="1504596375124"/>
    <step time="68.00" loaded="112" inserted="34" running="33" waiting="1" ended="1" meanWaitingTime="0.44" meanTravelTime="13.00" duration="1504596375221"/>
    <step time="69.00" loaded="112" inserted="34" running="33" waiting="1" ended="1" meanWaitingTime="0.44" meanTravelTime="13.00" duration="1504596375320"/>
    <step time="70.00" loaded="112" inserted="34" running="33" waiting="1" ended="1" meanWaitingTime="0.44" meanTravelTime="13.00" duration="1504596375418"/>
    <step time="71.00" loaded="112" inserted="35" running="34" waiting="0" ended="1" meanWaitingTime="0.51" meanTravelTime="13.00" duration="1504596375520"/>
    <step time="72.00" loaded="112" inserted="35" running="34" waiting="0" ended="1" meanWaitingTime="0.51" meanTravelTime="13.00" duration="1504596375618"/>
    <step time="73.00" loaded="112" inserted="36" running="35" waiting="0" ended="1" meanWaitingTime="0.50" meanTravelTime="13.00" duration="1504596375715"/>
    <step time="74.00" loaded="112" inserted="36" running="35" waiting="1" ended="1" meanWaitingTime="0.50" meanTravelTime="13.00" duration="1504596375817"/>
    <step time="75.00" loaded="112" inserted="37" running="36" waiting="0" ended="1" meanWaitingTime="0.51" meanTravelTime="13.00" duration="1504596375920"/>
    <step time="76.00" loaded="112" inserted="38" running="37" waiting="0" ended="1" meanWaitingTime="0.50" meanTravelTime="13.00" duration="1504596376021"/>
    <step time="77.00" loaded="112" inserted="39" running="38" waiting="0" ended="1" meanWaitingTime="0.49" meanTravelTime="13.00" duration="1504596376123"/>
    <step time="78.00" loaded="112" inserted="39" running="38" waiting="0" ended="1" meanWaitingTime="0.49" meanTravelTime="13.00" duration="1504596376224"/>
    <step time="79.00" loaded="112" inserted="40" running="39" waiting="0" ended="1" meanWaitingTime="0.47" meanTravelTime="13.00" duration="1504596376326"/>
    <step time="80.00" loaded="112" inserted="41" running="40" waiting="0" ended="1" meanWaitingTime="0.46" meanTravelTime="13.00" duration="1504596376428"/>
    <step time="81.00" loaded="112" inserted="41" running="40" waiting="1" ended="1" meanWaitingTime="0.46" meanTravelTime="13.00" duration="1504596376528"/>
    <step time="82.00" loaded="112" inserted="41" running="40" waiting="2" ended="1" meanWaitingTime="0.46" meanTravelTime="13.00" duration="1504596376627"/>
    <step time="83.00" loaded="112" inserted="42" running="41" waiting="1" ended="1" meanWaitingTime="0.50" meanTravelTime="13.00" duration="1504596376728"/>
    <step time="84.00" loaded="112" inserted="43" running="42" waiting="0" ended="1" meanWaitingTime="0.53" meanTravelTime="13.00" duration="1504596376828"/>
    <step time="85.00" loaded="112" inserted="44" running="43" waiting="0" ended="1" meanWaitingTime="0.52" meanTravelTime="13.00" duration="1504596376930"/>
    <step time="86.00" loaded="112" inserted="45" running="44" waiting="0" ended="1" meanWaitingTime="0.51" meanTravelTime="13.00" duration="1504596377032"/>
    <step time="87.00" loaded="112" inserted="46" running="45" waiting="0" ended="1" meanWaitingTime="0.50" meanTravelTime="13.00" duration="1504596377132"/>
    <step time="88.00" loaded="112" inserted="46" running="45" waiting="1" ended="1" meanWaitingTime="0.50" meanTravelTime="13.00" duration="1504596377234"/>
    <step time="89.00" loaded="112" inserted="46" running="45" waiting="1" ended="1" meanWaitingTime="0.50" meanTravelTime="13.00" duration="1504596377336"/>
    <step time="90.00" loaded="112" inserted="47" running="46" waiting="0" ended="1" meanWaitingTime="0.53" meanTravelTime="13.00" duration="1504596377436"/>
    <step time="91.00" loaded="112" inserted="48" running="47" waiting="0" ended="1" meanWaitingTime="0.52" meanTravelTime="13.00" duration="1504596377538"/>
    <step time="92.00" loaded="112" inserted="48" running="47" waiting="0" ended="1" meanWaitingTime="0.52" meanTravelTime="13.00" duration="1504596377639"/>
    <step time="93.00" loaded="112" inserted="48" running="47" waiting="0" ended="1" meanWaitingTime="0.52" meanTravelTime="13.00" duration="1504596377737"/>
    <step time="94.00" loaded="112" inserted="48" running="47" waiting="1" ended="1" meanWaitingTime="0.52" meanTravelTime="13.00" duration="1504596377838"/>
    <step time="95.00" loaded="112" inserted="49" running="48" waiting="1" ended="1" meanWaitingTime="0.51" meanTravelTime="13.00" duration="1504596377936"/>
    <step time="96.00" loaded="112" inserted="50" running="49" waiting="0" ended="1" meanWaitingTime="0.54" meanTravelTime="13.00" duration="1504596378035"/>
    <step time="97.00" loaded="112" inserted="50" running="49" waiting="1" ended="1" meanWaitingTime="0.54" meanTravelTime="13.00" duration="1504596378135"/>
    <step time="98.00" loaded="112" inserted="51" running="50" waiting="1" ended="1" meanWaitingTime="0.53" meanTravelTime="13.00" duration="1504596378235"/>
    <step time="99.00" loaded="112" inserted="52" running="51" waiting="0" ended="1" meanWaitingTime="0.56" meanTravelTime="13.00" duration="1504596378336"/>
    <step time="100.00" loaded="112" inserted="52" running="51" waiting="1" ended="1" meanWaitingTime="0.56" meanTravelTime="13.00" duration="1504596378433"/>
    <step time="101.00" loaded="112" inserted="52" running="51" waiting="1" ended="1" meanWaitingTime="0.56" meanTravelTime="13.00" duration="1504596378535"/>
    <step time="102.00" loaded="112" inserted="53" running="52" waiting="0" ended="1" meanWaitingTime="0.58" meanTravelTime="13.00" duration="1504596378636"/>
    <step time="103.00" loaded="112" inserted="54" running="53" waiting="0" ended="1" meanWaitingTime="0.57" meanTravelTime="13.00" duration="1504596378736"/>
    <step time="104.00" loaded="112" inserted="54" running="52" waiting="0" ended="2" meanWaitingTime="0.57" meanTravelTime="36.50" duration="1504596378836"/>
    <step time="105.00" loaded="112" inserted="55" running="53" waiting="0" ended="2" meanWaitingTime="0.56" meanTravelTime="36.50" duration="1504596378937"/>
    <step time="106.00" loaded="112" inserted="55" running="53" waiting="0" ended="2" meanWaitingTime="0.56" meanTravelTime="36.50" duration="1504596379038"/>
    <step time="107.00" loaded="112" inserted="56" running="54" waiting="0" ended="2" meanWaitingTime="0.55" meanTravelTime="36.50" duration="1504596379138"/>
    <step time="108.00" loaded="112" inserted="57" running="54" waiting="0" ended="3" meanWaitingTime="0.54" meanTravelTime="32.33" duration="1504596379238"/>
    <step time="109.00" loaded="112" inserted="58" running="55" waiting="0" ended="3" meanWaitingTime="0.53" meanTravelTime="32.33" duration="1504596379338"/>
    <step time="110.00" loaded="112" inserted="58" running="55" waiting="0" ended="3" meanWaitingTime="0.53" meanTravelTime="32.33" duration="1504596379439"/>
    <step time="111.00" loaded="112" inserted="58" running="55" waiting="0" ended="3" meanWaitingTime="0.53" meanTravelTime="32.33" duration="1504596379539"/>
    <step time="112.00" loaded="112" inserted="59" running="56" waiting="0" ended="3" meanWaitingTime="0.53" meanTravelTime="32.33" duration="1504596379639"/>
    <step time="113.00" loaded="112" inserted="59" running="56" waiting="0" ended="3" meanWaitingTime="0.53" meanTravelTime="32.33" duration="1504596379739"/>
    <step time="114.00" loaded="112" inserted="59" running="56" waiting="0" ended="3" meanWaitingTime="0.53" meanTravelTime="32.33" duration="1504596379840"/>
    <step time="115.00" loaded="112" inserted="60" running="56" waiting="0" ended="4" meanWaitingTime="0.52" meanTravelTime="41.50" duration="1504596379940"/>
    <step time="116.00" loaded="112" inserted="61" running="57" waiting="0" ended="4" meanWaitingTime="0.51" meanTravelTime="41.50" duration="1504596380040"/>
    <step time="117.00" loaded="112" inserted="62" running="57" waiting="0" ended="5" meanWaitingTime="0.50" meanTravelTime="55.40" duration="1504596380141"/>
    <step time="118.00" loaded="112" inserted="62" running="57" waiting="0" ended="5" meanWaitingTime="0.50" meanTravelTime="55.40" duration="1504596380241"/>
    <step time="119.00" loaded="112" inserted="63" running="58" waiting="0" ended="5" meanWaitingTime="0.49" meanTravelTime="55.40" duration="1504596380341"/>
    <step time="120.00" loaded="112" inserted="64" running="59" waiting="0" ended="5" meanWaitingTime="0.48" meanTravelTime="55.40" duration="1504596380441"/>
    <step time="121.00" loaded="112" inserted="64" running="59" waiting="0" ended="5" meanWaitingTime="0.48" meanTravelTime="55.40" duration="1504596380542"/>
    <step time="122.00" loaded="112" inserted="64" running="59" waiting="0" ended="5" meanWaitingTime="0.48" meanTravelTime="55.40" duration="1504596380644"/>
    <step time="123.00" loaded="112" inserted="65" running="60" waiting="0" ended="5" meanWaitingTime="0.48" meanTravelTime="55.40" duration="1504596380744"/>
    <step time="124.00" loaded="112" inserted="65" running="59" waiting="0" ended="6" meanWaitingTime="0.48" meanTravelTime="55.50" duration="1504596380842"/>
    <step time="125.00" loaded="112" inserted="65" running="59" waiting="0" ended="6" meanWaitingTime="0.48" meanTravelTime="55.50" duration="1504596380943"/>
    <step time="126.00" loaded="112" inserted="65" running="58" waiting="0" ended="7" meanWaitingTime="0.48" meanTravelTime="60.43" duration="1504596381043"/>
    <step time="127.00" loaded="112" inserted="65" running="58" waiting="1" ended="7" meanWaitingTime="0.48" meanTravelTime="60.43" duration="1504596381143"/>
    <step time="128.00" loaded="112" inserted="65" running="58" waiting="1" ended="7" meanWaitingTime="0.48" meanTravelTime="60.43" duration="1504596381243"/>
    <step time="129.00" loaded="112" inserted="66" running="59" waiting="1" ended="7" meanWaitingTime="0.47" meanTravelTime="60.43" duration="1504596381344"/>
    <step time="130.00" loaded="112" inserted="67" running="60" waiting="1" ended="7" meanWaitingTime="0.46" meanTravelTime="60.43" duration="1504596381444"/>
    <step time="131.00" loaded="112" inserted="67" running="60" waiting="1" ended="7" meanWaitingTime="0.46" meanTravelTime="60.43" duration="1504596381544"/>
    <step time="132.00" loaded="112" inserted="69" running="62" waiting="0" ended="7" meanWaitingTime="0.52" meanTravelTime="60.43" duration="1504596381645"/>
    <step time="133.00" loaded="112" inserted="70" running="62" waiting="0" ended="8" meanWaitingTime="0.51" meanTravelTime="54.50" duration="1504596381745"/>
    <step time="134.00" loaded="112" inserted="70" running="62" waiting="0" ended="8" meanWaitingTime="0.51" meanTravelTime="54.50" duration="1504596381845"/>
    <step time="135.00" loaded="112" inserted="71" running="63" waiting="0" ended="8" meanWaitingTime="0.51" meanTravelTime="54.50" duration="1504596381945"/>
    <step time="136.00" loaded="112" inserted="71" running="63" waiting="0" ended="8" meanWaitingTime="0.51" meanTravelTime="54.50" duration="1504596382044"/>
    <step time="137.00" loaded="112" inserted="72" running="64" waiting="0" ended="8" meanWaitingTime="0.50" meanTravelTime="54.50" duration="1504596382146"/>
    <step time="138.00" loaded="112" inserted="72" running="64" waiting="0" ended="8" meanWaitingTime="0.50" meanTravelTime="54.50" duration="1504596382244"/>
    <step time="139.00" loaded="112" inserted="73" running="65" waiting="0" ended="8" meanWaitingTime="0.49" meanTravelTime="54.50" duration="1504596382346"/>
    <step time="140.00" loaded="112" inserted="73" running="65" waiting="1" ended="8" meanWaitingTime="0.49" meanTravelTime="54.50" duration="1504596382446"/>
    <step time="141.00" loaded="112" inserted="73" running="65" waiting="1" ended="8" meanWaitingTime="0.49" meanTravelTime="54.50" duration="1504596382547"/>
    <step time="142.00" loaded="112" inserted="75" running="67" waiting="0" ended="8" meanWaitingTime="0.51" meanTravelTime="54.50" duration="1504596382647"/>
    <step time="143.00" loaded="112" inserted="75" running="67" waiting="0" ended="8" meanWaitingTime="0.51" meanTravelTime="54.50" duration="1504596382748"/>
    <step time="144.00" loaded="112" inserted="75" running="67" waiting="0" ended="8" meanWaitingTime="0.51" meanTravelTime="54.50" duration="1504596382847"/>
    <step time="145.00" loaded="112" inserted="75" running="67" waiting="1" ended="8" meanWaitingTime="0.51" meanTravelTime="54.50" duration="1504596382948"/>
    <step time="146.00" loaded="112" inserted="75" running="67" waiting="1" ended="8" meanWaitingTime="0.51" meanTravelTime="54.50" duration="1504596383048"/>
    <step time="147.00" loaded="112" inserted="75" running="67" waiting="2" ended="8" meanWaitingTime="0.51" meanTravelTime="54.50" duration="1504596383147"/>
    <step time="148.00" loaded="112" inserted="75" running="67" waiting="2" ended="8" meanWaitingTime="0.51" meanTravelTime="54.50" duration="1504596383247"/>
    <step time="149.00" loaded="112" inserted="76" running="67" waiting="2" ended="9" meanWaitingTime="0.55" meanTravelTime="57.67" duration="1504596383349"/>
    <step time="150.00" loaded="112" inserted="77" running="68" waiting="2" ended="9" meanWaitingTime="0.55" meanTravelTime="57.67" duration="1504596383449"/>
    <step time="151.00" loaded="112" inserted="77" running="67" waiting="2" ended="10" meanWaitingTime="0.55" meanTravelTime="54.10" duration="1504596383550"/>
    <step time="152.00" loaded="112" inserted="78" running="67" waiting="2" ended="11" meanWaitingTime="0.54" meanTravelTime="55.18" duration="1504596383650"/>
    <step time="153.00" loaded="112" inserted="78" running="66" waiting="2" ended="12" meanWaitingTime="0.54" meanTravelTime="59.92" duration="1504596383750"/>
    <step time="154.00" loaded="112" inserted="79" running="67" waiting="2" ended="12" meanWaitingTime="0.53" meanTravelTime="59.92" duration="1504596383850"/>
    <step time="155.00" loaded="112" inserted="81" running="68" waiting="1" ended="13" meanWaitingTime="0.59" meanTravelTime="65.77" duration="1504596383951"/>
    <step time="156.00" loaded="112" inserted="81" running="68" waiting="2" ended="13" meanWaitingTime="0.59" meanTravelTime="65.77" duration="1504596384051"/>
    <step time="157.00" loaded="112" inserted="82" running="69" waiting="2" ended="13" meanWaitingTime="0.60" meanTravelTime="65.77" duration="1504596384151"/>
    <step time="158.00" loaded="112" inserted="83" running="70" waiting="2" ended="13" meanWaitingTime="0.72" meanTravelTime="65.77" duration="1504596384252"/>
    <step time="159.00" loaded="112" inserted="84" running="71" waiting="2" ended="13" meanWaitingTime="0.71" meanTravelTime="65.77" duration="1504596384353"/>
    <step time="160.00" loaded="112" inserted="85" running="72" waiting="1" ended="13" meanWaitingTime="0.73" meanTravelTime="65.77" duration="1504596384453"/>
    <step time="161.00" loaded="112" inserted="86" running="72" waiting="1" ended="14" meanWaitingTime="0.72" meanTravelTime="69.21" duration="1504596384554"/>
    <step time="162.00" loaded="112" inserted="86" running="72" waiting="1" ended="14" meanWaitingTime="0.72" meanTravelTime="69.21" duration="1504596384654"/>
    <step time="163.00" loaded="112" inserted="86" running="71" waiting="2" ended="15" meanWaitingTime="0.72" meanTravelTime="72.07" duration="1504596384754"/>
    <step time="164.00" loaded="112" inserted="89" running="73" waiting="0" ended="16" meanWaitingTime="0.79" meanTravelTime="70.38" duration="1504596384855"/>
    <step time="165.00" loaded="112" inserted="90" running="74" waiting="0" ended="16" meanWaitingTime="0.78" meanTravelTime="70.38" duration="1504596384956"/>
    <step time="166.00" loaded="112" inserted="90" running="73" waiting="1" ended="17" meanWaitingTime="0.78" meanTravelTime="71.53" duration="1504596385056"/>
    <step time="167.00" loaded="112" inserted="91" running="74" waiting="1" ended="17" meanWaitingTime="0.77" meanTravelTime="71.53" duration="1504596385157"/>
    <step time="168.00" loaded="112" inserted="93" running="76" waiting="0" ended="17" meanWaitingTime="0.77" meanTravelTime="71.53" duration="1504596385257"/>
    <step time="169.00" loaded="112" inserted="93" running="76" waiting="1" ended="17" meanWaitingTime="0.77" meanTravelTime="71.53" duration="1504596385358"/>
    <step time="170.00" loaded="112" inserted="93" running="76" waiting="2" ended="17" meanWaitingTime="0.77" meanTravelTime="71.53" duration="1504596385458"/>
    <step time="171.00" loaded="112" inserted="95" running="78" waiting="0" ended="17" meanWaitingTime="0.79" meanTravelTime="71.53" duration="1504596385558"/>
    <step time="172.00" loaded="112" inserted="95" running="78" waiting="0" ended="17" meanWaitingTime="0.79" meanTravelTime="71.53" duration="1504596385659"/>
    <step time="173.00" loaded="112" inserted="95" running="77" waiting="0" ended="18" meanWaitingTime="0.79" meanTravelTime="68.89" duration="1504596385760"/>
    <step time="174.00" loaded="112" inserted="95" running="77" waiting="0" ended="18" meanWaitingTime="0.79" meanTravelTime="68.89" duration="1504596385860"/>
    <step time="175.00" loaded="112" inserted="95" running="77" waiting="1" ended="18" meanWaitingTime="0.79" meanTravelTime="68.89" duration="1504596385961"/>
    <step time="176.00" loaded="112" inserted="96" running="77" waiting="0" ended="19" meanWaitingTime="0.79" meanTravelTime="69.00" duration="1504596386062"/>
    <step time="177.00" loaded="112" inserted="96" running="77" waiting="1" ended="19" meanWaitingTime="0.79" meanTravelTime="69.00" duration="1504596386164"/>
    <step time="178.00" loaded="112" inserted="96" running="77" waiting="2" ended="19" meanWaitingTime="0.79" meanTravelTime="69.00" duration="1504596386265"/>
    <step time="179.00" loaded="112" inserted="97" running="78" waiting="1" ended="19" meanWaitingTime="0.79" meanTravelTime="69.00" duration="1504596386365"/>
    <step time="180.00" loaded="112" inserted="98" running="79" waiting="0" ended="19" meanWaitingTime="0.82" meanTravelTime="69.00" duration="1504596386462"/>
    <step time="181.00" loaded="112" inserted="98" running="79" waiting="1" ended="19" meanWaitingTime="0.82" meanTravelTime="69.00" duration="1504596386563"/>
    <step time="182.00" loaded="112" inserted="98" running="79" waiting="1" ended="19" meanWaitingTime="0.82" meanTravelTime="69.00" duration="1504596386663"/>
    <step time="183.00" loaded="112" inserted="98" running="78" waiting="1" ended="20" meanWaitingTime="0.82" meanTravelTime="68.90" duration="1504596386761"/>
    <step time="184.00" loaded="112" inserted="99" running="79" waiting="0" ended="20" meanWaitingTime="0.84" meanTravelTime="68.90" duration="1504596386861"/>